REMARK  7 active torsions:
REMARK  status: ('A' for Active; 'I' for Inactive)
REMARK    1  A    between atoms: N_2  and  C_12 
REMARK    2  A    between atoms: C_3  and  C_4 
REMARK    3  A    between atoms: C_9  and  N_29 
REMARK    4  A    between atoms: C_11  and  C_33 
REMARK    5  A    between atoms: C_12  and  C_31 
REMARK    6  A    between atoms: C_23  and  C_24 
REMARK    7  A    between atoms: C_25  and  C_27 
REMARK       I    between atoms: C_27  and  N_29 
ROOT
HETATM    1  N   UNK     0       4.094  -7.340  13.892  0.00  0.00    -0.238 NA
HETATM    2  C   UNK     0       2.335  -8.423  15.347  0.00  0.00     0.054 A 
HETATM    3  C   UNK     0       1.217  -8.107  16.118  0.00  0.00     0.025 A 
HETATM    4  C   UNK     0       0.796  -6.738  16.213  0.00  0.00     0.139 A 
HETATM    5  N   UNK     0       1.392  -5.697  15.611  0.00  0.00    -0.177 NA
HETATM    6  N   UNK     0       2.483  -6.066  14.867  0.00  0.00    -0.206 N 
HETATM    7  C   UNK     0       3.024  -7.378  14.677  0.00  0.00     0.151 A 
HETATM    8  C   UNK     0       4.266  -6.004  13.563  0.00  0.00     0.160 A 
HETATM    9  C   UNK     0       3.298  -5.245  14.144  0.00  0.00     0.131 A 
ENDROOT
BRANCH   9  10
HETATM   10  C   UNK     0       3.169  -3.856  14.026  0.00  0.00    -0.040 C 
HETATM   11  C   UNK     0       3.110  -2.662  13.914  0.00  0.00    -0.059 C 
BRANCH  11  12
HETATM   12  C   UNK     0       3.124  -1.217  13.748  0.00  0.00     0.025 A 
HETATM   13  C   UNK     0       2.515  -0.547  12.613  0.00  0.00    -0.043 A 
HETATM   14  C   UNK     0       2.576   0.870  12.517  0.00  0.00     0.009 A 
HETATM   15  C   UNK     0       1.808  -1.336  11.501  0.00  0.00     0.049 C 
HETATM   16  C   UNK     0       3.249   1.649  13.552  0.00  0.00     0.017 A 
HETATM   17  C   UNK     0       3.854   0.963  14.680  0.00  0.00     0.033 A 
HETATM   18  C   UNK     0       3.777  -0.467  14.751  0.00  0.00     0.038 A 
BRANCH  17  19
HETATM   19  C   UNK     0       4.561   1.671  15.778  0.00  0.00     0.256 C 
HETATM   20  O   UNK     0       5.070   1.013  16.693  0.00  0.00    -0.267 OA
HETATM   21  N   UNK     0       4.599   3.033  15.704  0.00  0.00    -0.323 N 
HETATM   22  H   UNK     0       3.932   3.473  15.103  0.00  0.00     0.169 HD
BRANCH  21  23
HETATM   23  C   UNK     0       5.504   3.889  16.406  0.00  0.00     0.035 A 
HETATM   24  C   UNK     0       5.289   5.281  16.321  0.00  0.00     0.030 A 
HETATM   25  C   UNK     0       6.149   6.189  17.002  0.00  0.00     0.012 A 
HETATM   26  C   UNK     0       7.243   5.725  17.785  0.00  0.00    -0.015 A 
HETATM   27  C   UNK     0       7.482   4.291  17.886  0.00  0.00     0.058 A 
HETATM   28  C   UNK     0       6.602   3.400  17.189  0.00  0.00     0.046 A 
BRANCH  26  29
HETATM   29  C   UNK     0       8.114   6.776  18.492  0.00  0.00     0.311 C 
BRANCH  29  30
HETATM   30  N   UNK     0       7.343   7.825  19.129  0.00  0.00     0.096 N 
HETATM   31  C   UNK     0       6.485   7.358  20.245  0.00  0.00     0.303 C 
HETATM   32  C   UNK     0       5.598   8.519  20.760  0.00  0.00     0.302 C 
HETATM   33  N   UNK     0       6.422   9.688  21.171  0.00  0.00     0.087 N 
HETATM   34  C   UNK     0       7.382  10.100  20.103  0.00  0.00     0.302 C 
HETATM   35  C   UNK     0       5.569  10.809  21.578  0.00  0.00     0.310 C 
HETATM   36  C   UNK     0       8.236   8.913  19.614  0.00  0.00     0.303 C 
ENDBRANCH  29  30
ENDBRANCH  26  29
BRANCH  27  37
HETATM   37  C   UNK     0       8.622   3.701  18.702  0.00  0.00     0.418 C 
HETATM   38  F   UNK     0       8.421   3.953  19.986  0.00  0.00    -0.166 F 
HETATM   39  F   UNK     0       8.705   2.381  18.578  0.00  0.00    -0.166 F 
HETATM   40  F   UNK     0       9.794   4.235  18.291  0.00  0.00    -0.166 F 
ENDBRANCH  27  37
ENDBRANCH  21  23
ENDBRANCH  17  19
ENDBRANCH  11  12
ENDBRANCH   9  10
TORSDOF 7
